TITLE = " THIS FILE WAS GENERATED BY MESHMAGICK - FICHIER : fpso_YC_modif_finer_again.tec " 
VARIABLES = "X","Y","Z" 
ZONE T="MESH" 
N=      3233 ,E=      2012 , F=FEPOINT, ET=QUADRILATERAL
   -1.500000E+02    0.000000E+00   -1.500000E+01
   -1.500000E+02    0.000000E+00   -1.335494E+01
   -1.500000E+02    0.000000E+00   -1.070290E+01
   -1.500000E+02    0.000000E+00   -7.500000E+00
   -1.500000E+02    0.000000E+00   -4.297100E+00
   -1.500000E+02    0.000000E+00   -1.645060E+00
   -1.500000E+02    0.000000E+00    3.000000E-01
   -1.500000E+02    3.916280E+00   -1.500000E+01
   -1.500000E+02    3.916280E+00   -1.335494E+01
   -1.500000E+02    3.916280E+00   -1.070290E+01
   -1.500000E+02    3.916280E+00   -7.500000E+00
   -1.500000E+02    3.916280E+00   -4.297100E+00
   -1.500000E+02    3.916280E+00   -1.645060E+00
   -1.500000E+02    3.916280E+00    3.000000E-01
   -1.500000E+02    7.587810E+00   -1.500000E+01
   -1.500000E+02    7.587810E+00   -1.335494E+01
   -1.500000E+02    7.587810E+00   -1.070290E+01
   -1.500000E+02    7.587810E+00   -7.500000E+00
   -1.500000E+02    7.587810E+00   -4.297100E+00
   -1.500000E+02    7.587810E+00   -1.645060E+00
   -1.500000E+02    7.587810E+00    3.000000E-01
   -1.500000E+02    1.078513E+01   -1.500000E+01
   -1.500000E+02    1.078513E+01   -1.335494E+01
   -1.500000E+02    1.078513E+01   -1.070290E+01
   -1.500000E+02    1.078513E+01   -7.500000E+00
   -1.500000E+02    1.078513E+01   -4.297100E+00
   -1.500000E+02    1.078513E+01   -1.645060E+00
   -1.500000E+02    1.078513E+01    3.000000E-01
   -1.500000E+02    1.330842E+01   -1.500000E+01
   -1.500000E+02    1.330842E+01   -1.335494E+01
   -1.500000E+02    1.330842E+01   -1.070290E+01
   -1.500000E+02    1.330842E+01   -7.500000E+00
   -1.500000E+02    1.330842E+01   -4.297100E+00
   -1.500000E+02    1.330842E+01   -1.645060E+00
   -1.500000E+02    1.330842E+01    3.000000E-01
   -1.500000E+02    1.500000E+01   -1.500000E+01
   -1.500000E+02    1.500000E+01   -1.335494E+01
   -1.500000E+02    1.500000E+01   -1.070290E+01
   -1.500000E+02    1.500000E+01   -7.500000E+00
   -1.500000E+02    1.500000E+01   -4.297100E+00
   -1.500000E+02    1.500000E+01   -1.645060E+00
   -1.500000E+02    1.500000E+01    3.000000E-01
   -1.500000E+02    1.500000E+01   -1.500000E+01
   -1.500000E+02    1.500000E+01   -1.335494E+01
   -1.500000E+02    1.500000E+01   -1.070290E+01
   -1.500000E+02    1.500000E+01   -7.500000E+00
   -1.500000E+02    1.500000E+01   -4.297100E+00
   -1.500000E+02    1.500000E+01   -1.645060E+00
   -1.500000E+02    1.500000E+01    3.000000E-01
   -1.477528E+02    1.589890E+01   -1.589890E+01
   -1.477528E+02    1.589890E+01   -1.415525E+01
   -1.477528E+02    1.589890E+01   -1.134429E+01
   -1.477528E+02    1.589890E+01   -7.949450E+00
   -1.477528E+02    1.589890E+01   -4.554610E+00
   -1.477528E+02    1.589890E+01   -1.743640E+00
   -1.477528E+02    1.589890E+01    3.000000E-01
   -1.445165E+02    1.719341E+01   -1.719341E+01
   -1.445165E+02    1.719341E+01   -1.530780E+01
   -1.445165E+02    1.719341E+01   -1.226796E+01
   -1.445165E+02    1.719341E+01   -8.596710E+00
   -1.445165E+02    1.719341E+01   -4.925450E+00
   -1.445165E+02    1.719341E+01   -1.885610E+00
   -1.445165E+02    1.719341E+01    3.000000E-01
   -1.404318E+02    1.882728E+01   -1.882728E+01
   -1.404318E+02    1.882728E+01   -1.676248E+01
   -1.404318E+02    1.882728E+01   -1.343376E+01
   -1.404318E+02    1.882728E+01   -9.413640E+00
   -1.404318E+02    1.882728E+01   -5.393510E+00
   -1.404318E+02    1.882728E+01   -2.064800E+00
   -1.404318E+02    1.882728E+01    3.000000E-01
   -1.356763E+02    2.072947E+01   -2.072947E+01
   -1.356763E+02    2.072947E+01   -1.845605E+01
   -1.356763E+02    2.072947E+01   -1.479103E+01
   -1.356763E+02    2.072947E+01   -1.036473E+01
   -1.356763E+02    2.072947E+01   -5.938440E+00
   -1.356763E+02    2.072947E+01   -2.273410E+00
   -1.356763E+02    2.072947E+01    3.000000E-01
   -1.304568E+02    2.281729E+01   -2.281729E+01
   -1.304568E+02    2.281729E+01   -2.031490E+01
   -1.304568E+02    2.281729E+01   -1.628075E+01
   -1.304568E+02    2.281729E+01   -1.140865E+01
   -1.304568E+02    2.281729E+01   -6.536550E+00
   -1.304568E+02    2.281729E+01   -2.502390E+00
   -1.304568E+02    2.281729E+01    3.000000E-01
   -1.250000E+02    2.500000E+01   -2.500000E+01
   -1.250000E+02    2.500000E+01   -2.225823E+01
   -1.250000E+02    2.500000E+01   -1.783817E+01
   -1.250000E+02    2.500000E+01   -1.250000E+01
   -1.250000E+02    2.500000E+01   -7.161830E+00
   -1.250000E+02    2.500000E+01   -2.741770E+00
   -1.250000E+02    2.500000E+01    3.000000E-01
   -1.250000E+02    2.500000E+01   -2.500000E+01
   -1.250000E+02    2.500000E+01   -2.225823E+01
   -1.250000E+02    2.500000E+01   -1.783817E+01
   -1.250000E+02    2.500000E+01   -1.250000E+01
   -1.250000E+02    2.500000E+01   -7.161830E+00
   -1.250000E+02    2.500000E+01   -2.741770E+00
   -1.250000E+02    2.500000E+01    3.000000E-01
   -1.189693E+02    2.500000E+01   -2.500000E+01
   -1.189693E+02    2.500000E+01   -2.225823E+01
   -1.189693E+02    2.500000E+01   -1.783817E+01
   -1.189693E+02    2.500000E+01   -1.250000E+01
   -1.189693E+02    2.500000E+01   -7.161830E+00
   -1.189693E+02    2.500000E+01   -2.741770E+00
   -1.189693E+02    2.500000E+01    3.000000E-01
   -1.124841E+02    2.500000E+01   -2.500000E+01
   -1.124841E+02    2.500000E+01   -2.225823E+01
   -1.124841E+02    2.500000E+01   -1.783817E+01
   -1.124841E+02    2.500000E+01   -1.250000E+01
   -1.124841E+02    2.500000E+01   -7.161830E+00
   -1.124841E+02    2.500000E+01   -2.741770E+00
   -1.124841E+02    2.500000E+01    3.000000E-01
   -1.055692E+02    2.500000E+01   -2.500000E+01
   -1.055692E+02    2.500000E+01   -2.225823E+01
   -1.055692E+02    2.500000E+01   -1.783817E+01
   -1.055692E+02    2.500000E+01   -1.250000E+01
   -1.055692E+02    2.500000E+01   -7.161830E+00
   -1.055692E+02    2.500000E+01   -2.741770E+00
   -1.055692E+02    2.500000E+01    3.000000E-01
   -9.825091E+01    2.500000E+01   -2.500000E+01
   -9.825091E+01    2.500000E+01   -2.225823E+01
   -9.825091E+01    2.500000E+01   -1.783817E+01
   -9.825091E+01    2.500000E+01   -1.250000E+01
   -9.825091E+01    2.500000E+01   -7.161830E+00
   -9.825091E+01    2.500000E+01   -2.741770E+00
   -9.825091E+01    2.500000E+01    3.000000E-01
   -9.055729E+01    2.500000E+01   -2.500000E+01
   -9.055729E+01    2.500000E+01   -2.225823E+01
   -9.055729E+01    2.500000E+01   -1.783817E+01
   -9.055729E+01    2.500000E+01   -1.250000E+01
   -9.055729E+01    2.500000E+01   -7.161830E+00
   -9.055729E+01    2.500000E+01   -2.741770E+00
   -9.055729E+01    2.500000E+01    3.000000E-01
   -8.251769E+01    2.500000E+01   -2.500000E+01
   -8.251769E+01    2.500000E+01   -2.225823E+01
   -8.251769E+01    2.500000E+01   -1.783817E+01
   -8.251769E+01    2.500000E+01   -1.250000E+01
   -8.251769E+01    2.500000E+01   -7.161830E+00
   -8.251769E+01    2.500000E+01   -2.741770E+00
   -8.251769E+01    2.500000E+01    3.000000E-01
   -7.416284E+01    2.500000E+01   -2.500000E+01
   -7.416284E+01    2.500000E+01   -2.225823E+01
   -7.416284E+01    2.500000E+01   -1.783817E+01
   -7.416284E+01    2.500000E+01   -1.250000E+01
   -7.416284E+01    2.500000E+01   -7.161830E+00
   -7.416284E+01    2.500000E+01   -2.741770E+00
   -7.416284E+01    2.500000E+01    3.000000E-01
   -6.552465E+01    2.500000E+01   -2.500000E+01
   -6.552465E+01    2.500000E+01   -2.225823E+01
   -6.552465E+01    2.500000E+01   -1.783817E+01
   -6.552465E+01    2.500000E+01   -1.250000E+01
   -6.552465E+01    2.500000E+01   -7.161830E+00
   -6.552465E+01    2.500000E+01   -2.741770E+00
   -6.552465E+01    2.500000E+01    3.000000E-01
   -5.663613E+01    2.500000E+01   -2.500000E+01
   -5.663613E+01    2.500000E+01   -2.225823E+01
   -5.663613E+01    2.500000E+01   -1.783817E+01
   -5.663613E+01    2.500000E+01   -1.250000E+01
   -5.663613E+01    2.500000E+01   -7.161830E+00
   -5.663613E+01    2.500000E+01   -2.741770E+00
   -5.663613E+01    2.500000E+01    3.000000E-01
   -4.753123E+01    2.500000E+01   -2.500000E+01
   -4.753123E+01    2.500000E+01   -2.225823E+01
   -4.753123E+01    2.500000E+01   -1.783817E+01
   -4.753123E+01    2.500000E+01   -1.250000E+01
   -4.753123E+01    2.500000E+01   -7.161830E+00
   -4.753123E+01    2.500000E+01   -2.741770E+00
   -4.753123E+01    2.500000E+01    3.000000E-01
   -3.824475E+01    2.500000E+01   -2.500000E+01
   -3.824475E+01    2.500000E+01   -2.225823E+01
   -3.824475E+01    2.500000E+01   -1.783817E+01
   -3.824475E+01    2.500000E+01   -1.250000E+01
   -3.824475E+01    2.500000E+01   -7.161830E+00
   -3.824475E+01    2.500000E+01   -2.741770E+00
   -3.824475E+01    2.500000E+01    3.000000E-01
   -2.881214E+01    2.500000E+01   -2.500000E+01
   -2.881214E+01    2.500000E+01   -2.225823E+01
   -2.881214E+01    2.500000E+01   -1.783817E+01
   -2.881214E+01    2.500000E+01   -1.250000E+01
   -2.881214E+01    2.500000E+01   -7.161830E+00
   -2.881214E+01    2.500000E+01   -2.741770E+00
   -2.881214E+01    2.500000E+01    3.000000E-01
   -1.926947E+01    2.500000E+01   -2.500000E+01
   -1.926947E+01    2.500000E+01   -2.225823E+01
   -1.926947E+01    2.500000E+01   -1.783817E+01
   -1.926947E+01    2.500000E+01   -1.250000E+01
   -1.926947E+01    2.500000E+01   -7.161830E+00
   -1.926947E+01    2.500000E+01   -2.741770E+00
   -1.926947E+01    2.500000E+01    3.000000E-01
   -9.653170E+00    2.500000E+01   -2.500000E+01
   -9.653170E+00    2.500000E+01   -2.225823E+01
   -9.653170E+00    2.500000E+01   -1.783817E+01
   -9.653170E+00    2.500000E+01   -1.250000E+01
   -9.653170E+00    2.500000E+01   -7.161830E+00
   -9.653170E+00    2.500000E+01   -2.741770E+00
   -9.653170E+00    2.500000E+01    3.000000E-01
    0.000000E+00    2.500000E+01   -2.500000E+01
    0.000000E+00    2.500000E+01   -2.225823E+01
    0.000000E+00    2.500000E+01   -1.783817E+01
    0.000000E+00    2.500000E+01   -1.250000E+01
    0.000000E+00    2.500000E+01   -7.161830E+00
    0.000000E+00    2.500000E+01   -2.741770E+00
    0.000000E+00    2.500000E+01    3.000000E-01
    9.653170E+00    2.500000E+01   -2.500000E+01
    9.653170E+00    2.500000E+01   -2.225823E+01
    9.653170E+00    2.500000E+01   -1.783817E+01
    9.653170E+00    2.500000E+01   -1.250000E+01
    9.653170E+00    2.500000E+01   -7.161830E+00
    9.653170E+00    2.500000E+01   -2.741770E+00
    9.653170E+00    2.500000E+01    3.000000E-01
    1.926947E+01    2.500000E+01   -2.500000E+01
    1.926947E+01    2.500000E+01   -2.225823E+01
    1.926947E+01    2.500000E+01   -1.783817E+01
    1.926947E+01    2.500000E+01   -1.250000E+01
    1.926947E+01    2.500000E+01   -7.161830E+00
    1.926947E+01    2.500000E+01   -2.741770E+00
    1.926947E+01    2.500000E+01    3.000000E-01
    2.881214E+01    2.500000E+01   -2.500000E+01
    2.881214E+01    2.500000E+01   -2.225823E+01
    2.881214E+01    2.500000E+01   -1.783817E+01
    2.881214E+01    2.500000E+01   -1.250000E+01
    2.881214E+01    2.500000E+01   -7.161830E+00
    2.881214E+01    2.500000E+01   -2.741770E+00
    2.881214E+01    2.500000E+01    3.000000E-01
    3.824475E+01    2.500000E+01   -2.500000E+01
    3.824475E+01    2.500000E+01   -2.225823E+01
    3.824475E+01    2.500000E+01   -1.783817E+01
    3.824475E+01    2.500000E+01   -1.250000E+01
    3.824475E+01    2.500000E+01   -7.161830E+00
    3.824475E+01    2.500000E+01   -2.741770E+00
    3.824475E+01    2.500000E+01    3.000000E-01
    4.753123E+01    2.500000E+01   -2.500000E+01
    4.753123E+01    2.500000E+01   -2.225823E+01
    4.753123E+01    2.500000E+01   -1.783817E+01
    4.753123E+01    2.500000E+01   -1.250000E+01
    4.753123E+01    2.500000E+01   -7.161830E+00
    4.753123E+01    2.500000E+01   -2.741770E+00
    4.753123E+01    2.500000E+01    3.000000E-01
    5.663613E+01    2.500000E+01   -2.500000E+01
    5.663613E+01    2.500000E+01   -2.225823E+01
    5.663613E+01    2.500000E+01   -1.783817E+01
    5.663613E+01    2.500000E+01   -1.250000E+01
    5.663613E+01    2.500000E+01   -7.161830E+00
    5.663613E+01    2.500000E+01   -2.741770E+00
    5.663613E+01    2.500000E+01    3.000000E-01
    6.552465E+01    2.500000E+01   -2.500000E+01
    6.552465E+01    2.500000E+01   -2.225823E+01
    6.552465E+01    2.500000E+01   -1.783817E+01
    6.552465E+01    2.500000E+01   -1.250000E+01
    6.552465E+01    2.500000E+01   -7.161830E+00
    6.552465E+01    2.500000E+01   -2.741770E+00
    6.552465E+01    2.500000E+01    3.000000E-01
    7.416284E+01    2.500000E+01   -2.500000E+01
    7.416284E+01    2.500000E+01   -2.225823E+01
    7.416284E+01    2.500000E+01   -1.783817E+01
    7.416284E+01    2.500000E+01   -1.250000E+01
    7.416284E+01    2.500000E+01   -7.161830E+00
    7.416284E+01    2.500000E+01   -2.741770E+00
    7.416284E+01    2.500000E+01    3.000000E-01
    8.251769E+01    2.500000E+01   -2.500000E+01
    8.251769E+01    2.500000E+01   -2.225823E+01
    8.251769E+01    2.500000E+01   -1.783817E+01
    8.251769E+01    2.500000E+01   -1.250000E+01
    8.251769E+01    2.500000E+01   -7.161830E+00
    8.251769E+01    2.500000E+01   -2.741770E+00
    8.251769E+01    2.500000E+01    3.000000E-01
    9.055729E+01    2.500000E+01   -2.500000E+01
    9.055729E+01    2.500000E+01   -2.225823E+01
    9.055729E+01    2.500000E+01   -1.783817E+01
    9.055729E+01    2.500000E+01   -1.250000E+01
    9.055729E+01    2.500000E+01   -7.161830E+00
    9.055729E+01    2.500000E+01   -2.741770E+00
    9.055729E+01    2.500000E+01    3.000000E-01
    9.825091E+01    2.500000E+01   -2.500000E+01
    9.825091E+01    2.500000E+01   -2.225823E+01
    9.825091E+01    2.500000E+01   -1.783817E+01
    9.825091E+01    2.500000E+01   -1.250000E+01
    9.825091E+01    2.500000E+01   -7.161830E+00
    9.825091E+01    2.500000E+01   -2.741770E+00
    9.825091E+01    2.500000E+01    3.000000E-01
    1.055692E+02    2.500000E+01   -2.500000E+01
    1.055692E+02    2.500000E+01   -2.225823E+01
    1.055692E+02    2.500000E+01   -1.783817E+01
    1.055692E+02    2.500000E+01   -1.250000E+01
    1.055692E+02    2.500000E+01   -7.161830E+00
    1.055692E+02    2.500000E+01   -2.741770E+00
    1.055692E+02    2.500000E+01    3.000000E-01
    1.124841E+02    2.500000E+01   -2.500000E+01
    1.124841E+02    2.500000E+01   -2.225823E+01
    1.124841E+02    2.500000E+01   -1.783817E+01
    1.124841E+02    2.500000E+01   -1.250000E+01
    1.124841E+02    2.500000E+01   -7.161830E+00
    1.124841E+02    2.500000E+01   -2.741770E+00
    1.124841E+02    2.500000E+01    3.000000E-01
    1.189693E+02    2.500000E+01   -2.500000E+01
    1.189693E+02    2.500000E+01   -2.225823E+01
    1.189693E+02    2.500000E+01   -1.783817E+01
    1.189693E+02    2.500000E+01   -1.250000E+01
    1.189693E+02    2.500000E+01   -7.161830E+00
    1.189693E+02    2.500000E+01   -2.741770E+00
    1.189693E+02    2.500000E+01    3.000000E-01
    1.250000E+02    2.500000E+01   -2.500000E+01
    1.250000E+02    2.500000E+01   -2.225823E+01
    1.250000E+02    2.500000E+01   -1.783817E+01
    1.250000E+02    2.500000E+01   -1.250000E+01
    1.250000E+02    2.500000E+01   -7.161830E+00
    1.250000E+02    2.500000E+01   -2.741770E+00
    1.250000E+02    2.500000E+01    3.000000E-01
   -1.250000E+02    0.000000E+00   -2.500000E+01
   -1.304568E+02    0.000000E+00   -2.281729E+01
   -1.356763E+02    0.000000E+00   -2.072947E+01
   -1.404318E+02    0.000000E+00   -1.882728E+01
   -1.445165E+02    0.000000E+00   -1.719341E+01
   -1.477528E+02    0.000000E+00   -1.589890E+01
   -1.500000E+02    0.000000E+00   -1.500000E+01
   -1.250000E+02    6.527130E+00   -2.500000E+01
   -1.304568E+02    5.957260E+00   -2.281729E+01
   -1.356763E+02    5.412160E+00   -2.072947E+01
   -1.404318E+02    4.915520E+00   -1.882728E+01
   -1.445165E+02    4.488950E+00   -1.719341E+01
   -1.477528E+02    4.150970E+00   -1.589890E+01
   -1.500000E+02    3.916280E+00   -1.500000E+01
   -1.250000E+02    1.264634E+01   -2.500000E+01
   -1.304568E+02    1.154221E+01   -2.281729E+01
   -1.356763E+02    1.048608E+01   -2.072947E+01
   -1.404318E+02    9.523850E+00   -1.882728E+01
   -1.445165E+02    8.697350E+00   -1.719341E+01
   -1.477528E+02    8.042520E+00   -1.589890E+01
   -1.500000E+02    7.587810E+00   -1.500000E+01
   -1.250000E+02    1.797521E+01   -2.500000E+01
   -1.304568E+02    1.640583E+01   -2.281729E+01
   -1.356763E+02    1.490466E+01   -2.072947E+01
   -1.404318E+02    1.353697E+01   -1.882728E+01
   -1.445165E+02    1.236221E+01   -1.719341E+01
   -1.477528E+02    1.143144E+01   -1.589890E+01
   -1.500000E+02    1.078513E+01   -1.500000E+01
   -1.250000E+02    2.218071E+01   -2.500000E+01
   -1.304568E+02    2.024415E+01   -2.281729E+01
   -1.356763E+02    1.839177E+01   -2.072947E+01
   -1.404318E+02    1.670409E+01   -1.882728E+01
   -1.445165E+02    1.525448E+01   -1.719341E+01
   -1.477528E+02    1.410595E+01   -1.589890E+01
   -1.500000E+02    1.330842E+01   -1.500000E+01
   -1.250000E+02    2.500000E+01   -2.500000E+01
   -1.304568E+02    2.281729E+01   -2.281729E+01
   -1.356763E+02    2.072947E+01   -2.072947E+01
   -1.404318E+02    1.882728E+01   -1.882728E+01
   -1.445165E+02    1.719341E+01   -1.719341E+01
   -1.477528E+02    1.589890E+01   -1.589890E+01
   -1.500000E+02    1.500000E+01   -1.500000E+01
   -1.250000E+02    0.000000E+00   -2.500000E+01
   -1.250000E+02    6.527130E+00   -2.500000E+01
   -1.250000E+02    1.264634E+01   -2.500000E+01
   -1.250000E+02    1.797521E+01   -2.500000E+01
   -1.250000E+02    2.218071E+01   -2.500000E+01
   -1.250000E+02    2.500000E+01   -2.500000E+01
   -1.189693E+02    0.000000E+00   -2.500000E+01
   -1.189693E+02    6.527130E+00   -2.500000E+01
   -1.189693E+02    1.264634E+01   -2.500000E+01
   -1.189693E+02    1.797521E+01   -2.500000E+01
   -1.189693E+02    2.218071E+01   -2.500000E+01
   -1.189693E+02    2.500000E+01   -2.500000E+01
   -1.124841E+02    0.000000E+00   -2.500000E+01
   -1.124841E+02    6.527130E+00   -2.500000E+01
   -1.124841E+02    1.264634E+01   -2.500000E+01
   -1.124841E+02    1.797521E+01   -2.500000E+01
   -1.124841E+02    2.218071E+01   -2.500000E+01
   -1.124841E+02    2.500000E+01   -2.500000E+01
   -1.055692E+02    0.000000E+00   -2.500000E+01
   -1.055692E+02    6.527130E+00   -2.500000E+01
   -1.055692E+02    1.264634E+01   -2.500000E+01
   -1.055692E+02    1.797521E+01   -2.500000E+01
   -1.055692E+02    2.218071E+01   -2.500000E+01
   -1.055692E+02    2.500000E+01   -2.500000E+01
   -9.825091E+01    0.000000E+00   -2.500000E+01
   -9.825091E+01    6.527130E+00   -2.500000E+01
   -9.825091E+01    1.264634E+01   -2.500000E+01
   -9.825091E+01    1.797521E+01   -2.500000E+01
   -9.825091E+01    2.218071E+01   -2.500000E+01
   -9.825091E+01    2.500000E+01   -2.500000E+01
   -9.055729E+01    0.000000E+00   -2.500000E+01
   -9.055729E+01    6.527130E+00   -2.500000E+01
   -9.055729E+01    1.264634E+01   -2.500000E+01
   -9.055729E+01    1.797521E+01   -2.500000E+01
   -9.055729E+01    2.218071E+01   -2.500000E+01
   -9.055729E+01    2.500000E+01   -2.500000E+01
   -8.251769E+01    0.000000E+00   -2.500000E+01
   -8.251769E+01    6.527130E+00   -2.500000E+01
   -8.251769E+01    1.264634E+01   -2.500000E+01
   -8.251769E+01    1.797521E+01   -2.500000E+01
   -8.251769E+01    2.218071E+01   -2.500000E+01
   -8.251769E+01    2.500000E+01   -2.500000E+01
   -7.416284E+01    0.000000E+00   -2.500000E+01
   -7.416284E+01    6.527130E+00   -2.500000E+01
   -7.416284E+01    1.264634E+01   -2.500000E+01
   -7.416284E+01    1.797521E+01   -2.500000E+01
   -7.416284E+01    2.218071E+01   -2.500000E+01
   -7.416284E+01    2.500000E+01   -2.500000E+01
   -6.552465E+01    0.000000E+00   -2.500000E+01
   -6.552465E+01    6.527130E+00   -2.500000E+01
   -6.552465E+01    1.264634E+01   -2.500000E+01
   -6.552465E+01    1.797521E+01   -2.500000E+01
   -6.552465E+01    2.218071E+01   -2.500000E+01
   -6.552465E+01    2.500000E+01   -2.500000E+01
   -5.663613E+01    0.000000E+00   -2.500000E+01
   -5.663613E+01    6.527130E+00   -2.500000E+01
   -5.663613E+01    1.264634E+01   -2.500000E+01
   -5.663613E+01    1.797521E+01   -2.500000E+01
   -5.663613E+01    2.218071E+01   -2.500000E+01
   -5.663613E+01    2.500000E+01   -2.500000E+01
   -4.753123E+01    0.000000E+00   -2.500000E+01
   -4.753123E+01    6.527130E+00   -2.500000E+01
   -4.753123E+01    1.264634E+01   -2.500000E+01
   -4.753123E+01    1.797521E+01   -2.500000E+01
   -4.753123E+01    2.218071E+01   -2.500000E+01
   -4.753123E+01    2.500000E+01   -2.500000E+01
   -3.824475E+01    0.000000E+00   -2.500000E+01
   -3.824475E+01    6.527130E+00   -2.500000E+01
   -3.824475E+01    1.264634E+01   -2.500000E+01
   -3.824475E+01    1.797521E+01   -2.500000E+01
   -3.824475E+01    2.218071E+01   -2.500000E+01
   -3.824475E+01    2.500000E+01   -2.500000E+01
   -2.881214E+01    0.000000E+00   -2.500000E+01
   -2.881214E+01    6.527130E+00   -2.500000E+01
   -2.881214E+01    1.264634E+01   -2.500000E+01
   -2.881214E+01    1.797521E+01   -2.500000E+01
   -2.881214E+01    2.218071E+01   -2.500000E+01
   -2.881214E+01    2.500000E+01   -2.500000E+01
   -1.926947E+01    0.000000E+00   -2.500000E+01
   -1.926947E+01    6.527130E+00   -2.500000E+01
   -1.926947E+01    1.264634E+01   -2.500000E+01
   -1.926947E+01    1.797521E+01   -2.500000E+01
   -1.926947E+01    2.218071E+01   -2.500000E+01
   -1.926947E+01    2.500000E+01   -2.500000E+01
   -9.653170E+00    0.000000E+00   -2.500000E+01
   -9.653170E+00    6.527130E+00   -2.500000E+01
   -9.653170E+00    1.264634E+01   -2.500000E+01
   -9.653170E+00    1.797521E+01   -2.500000E+01
   -9.653170E+00    2.218071E+01   -2.500000E+01
   -9.653170E+00    2.500000E+01   -2.500000E+01
    0.000000E+00    0.000000E+00   -2.500000E+01
    0.000000E+00    6.527130E+00   -2.500000E+01
    0.000000E+00    1.264634E+01   -2.500000E+01
    0.000000E+00    1.797521E+01   -2.500000E+01
    0.000000E+00    2.218071E+01   -2.500000E+01
    0.000000E+00    2.500000E+01   -2.500000E+01
    9.653170E+00    0.000000E+00   -2.500000E+01
    9.653170E+00    6.527130E+00   -2.500000E+01
    9.653170E+00    1.264634E+01   -2.500000E+01
    9.653170E+00    1.797521E+01   -2.500000E+01
    9.653170E+00    2.218071E+01   -2.500000E+01
    9.653170E+00    2.500000E+01   -2.500000E+01
    1.926947E+01    0.000000E+00   -2.500000E+01
    1.926947E+01    6.527130E+00   -2.500000E+01
    1.926947E+01    1.264634E+01   -2.500000E+01
    1.926947E+01    1.797521E+01   -2.500000E+01
    1.926947E+01    2.218071E+01   -2.500000E+01
    1.926947E+01    2.500000E+01   -2.500000E+01
    2.881214E+01    0.000000E+00   -2.500000E+01
    2.881214E+01    6.527130E+00   -2.500000E+01
    2.881214E+01    1.264634E+01   -2.500000E+01
    2.881214E+01    1.797521E+01   -2.500000E+01
    2.881214E+01    2.218071E+01   -2.500000E+01
    2.881214E+01    2.500000E+01   -2.500000E+01
    3.824475E+01    0.000000E+00   -2.500000E+01
    3.824475E+01    6.527130E+00   -2.500000E+01
    3.824475E+01    1.264634E+01   -2.500000E+01
    3.824475E+01    1.797521E+01   -2.500000E+01
    3.824475E+01    2.218071E+01   -2.500000E+01
    3.824475E+01    2.500000E+01   -2.500000E+01
    4.753123E+01    0.000000E+00   -2.500000E+01
    4.753123E+01    6.527130E+00   -2.500000E+01
    4.753123E+01    1.264634E+01   -2.500000E+01
    4.753123E+01    1.797521E+01   -2.500000E+01
    4.753123E+01    2.218071E+01   -2.500000E+01
    4.753123E+01    2.500000E+01   -2.500000E+01
    5.663613E+01    0.000000E+00   -2.500000E+01
    5.663613E+01    6.527130E+00   -2.500000E+01
    5.663613E+01    1.264634E+01   -2.500000E+01
    5.663613E+01    1.797521E+01   -2.500000E+01
    5.663613E+01    2.218071E+01   -2.500000E+01
    5.663613E+01    2.500000E+01   -2.500000E+01
    6.552465E+01    0.000000E+00   -2.500000E+01
    6.552465E+01    6.527130E+00   -2.500000E+01
    6.552465E+01    1.264634E+01   -2.500000E+01
    6.552465E+01    1.797521E+01   -2.500000E+01
    6.552465E+01    2.218071E+01   -2.500000E+01
    6.552465E+01    2.500000E+01   -2.500000E+01
    7.416284E+01    0.000000E+00   -2.500000E+01
    7.416284E+01    6.527130E+00   -2.500000E+01
    7.416284E+01    1.264634E+01   -2.500000E+01
    7.416284E+01    1.797521E+01   -2.500000E+01
    7.416284E+01    2.218071E+01   -2.500000E+01
    7.416284E+01    2.500000E+01   -2.500000E+01
    8.251769E+01    0.000000E+00   -2.500000E+01
    8.251769E+01    6.527130E+00   -2.500000E+01
    8.251769E+01    1.264634E+01   -2.500000E+01
    8.251769E+01    1.797521E+01   -2.500000E+01
    8.251769E+01    2.218071E+01   -2.500000E+01
    8.251769E+01    2.500000E+01   -2.500000E+01
    9.055729E+01    0.000000E+00   -2.500000E+01
    9.055729E+01    6.527130E+00   -2.500000E+01
    9.055729E+01    1.264634E+01   -2.500000E+01
    9.055729E+01    1.797521E+01   -2.500000E+01
    9.055729E+01    2.218071E+01   -2.500000E+01
    9.055729E+01    2.500000E+01   -2.500000E+01
    9.825091E+01    0.000000E+00   -2.500000E+01
    9.825091E+01    6.527130E+00   -2.500000E+01
    9.825091E+01    1.264634E+01   -2.500000E+01
    9.825091E+01    1.797521E+01   -2.500000E+01
    9.825091E+01    2.218071E+01   -2.500000E+01
    9.825091E+01    2.500000E+01   -2.500000E+01
    1.055692E+02    0.000000E+00   -2.500000E+01
    1.055692E+02    6.527130E+00   -2.500000E+01
    1.055692E+02    1.264634E+01   -2.500000E+01
    1.055692E+02    1.797521E+01   -2.500000E+01
    1.055692E+02    2.218071E+01   -2.500000E+01
    1.055692E+02    2.500000E+01   -2.500000E+01
    1.124841E+02    0.000000E+00   -2.500000E+01
    1.124841E+02    6.527130E+00   -2.500000E+01
    1.124841E+02    1.264634E+01   -2.500000E+01
    1.124841E+02    1.797521E+01   -2.500000E+01
    1.124841E+02    2.218071E+01   -2.500000E+01
    1.124841E+02    2.500000E+01   -2.500000E+01
    1.189693E+02    0.000000E+00   -2.500000E+01
    1.189693E+02    6.527130E+00   -2.500000E+01
    1.189693E+02    1.264634E+01   -2.500000E+01
    1.189693E+02    1.797521E+01   -2.500000E+01
    1.189693E+02    2.218071E+01   -2.500000E+01
    1.189693E+02    2.500000E+01   -2.500000E+01
    1.250000E+02    0.000000E+00   -2.500000E+01
    1.250000E+02    6.527130E+00   -2.500000E+01
    1.250000E+02    1.264634E+01   -2.500000E+01
    1.250000E+02    1.797521E+01   -2.500000E+01
    1.250000E+02    2.218071E+01   -2.500000E+01
    1.250000E+02    2.500000E+01   -2.500000E+01
    1.500000E+02    0.000000E+00   -2.500000E+01
    1.493732E+02    5.563020E+00   -2.500000E+01
    1.500000E+02    0.000000E+00   -2.225823E+01
    1.493732E+02    5.563020E+00   -2.225823E+01
    1.500000E+02    0.000000E+00   -1.783817E+01
    1.493732E+02    5.563020E+00   -1.783817E+01
    1.500000E+02    0.000000E+00   -1.250000E+01
    1.493732E+02    5.563020E+00   -1.250000E+01
    1.500000E+02    0.000000E+00   -7.161830E+00
    1.493732E+02    5.563020E+00   -7.161830E+00
    1.500000E+02    0.000000E+00   -2.741770E+00
    1.493732E+02    5.563020E+00   -2.741770E+00
    1.500000E+02    0.000000E+00    3.000000E-01
    1.493732E+02    5.563020E+00    3.000000E-01
    1.493732E+02    5.563020E+00   -2.500000E+01
    1.475242E+02    1.084709E+01   -2.500000E+01
    1.493732E+02    5.563020E+00   -2.225823E+01
    1.475242E+02    1.084709E+01   -2.225823E+01
    1.493732E+02    5.563020E+00   -1.783817E+01
    1.475242E+02    1.084709E+01   -1.783817E+01
    1.493732E+02    5.563020E+00   -1.250000E+01
    1.475242E+02    1.084709E+01   -1.250000E+01
    1.493732E+02    5.563020E+00   -7.161830E+00
    1.475242E+02    1.084709E+01   -7.161830E+00
    1.493732E+02    5.563020E+00   -2.741770E+00
    1.475242E+02    1.084709E+01   -2.741770E+00
    1.493732E+02    5.563020E+00    3.000000E-01
    1.475242E+02    1.084709E+01    3.000000E-01
    1.475242E+02    1.084709E+01   -2.500000E+01
    1.445458E+02    1.558725E+01   -2.500000E+01
    1.475242E+02    1.084709E+01   -2.225823E+01
    1.445458E+02    1.558725E+01   -2.225823E+01
    1.475242E+02    1.084709E+01   -1.783817E+01
    1.445458E+02    1.558725E+01   -1.783817E+01
    1.475242E+02    1.084709E+01   -1.250000E+01
    1.445458E+02    1.558725E+01   -1.250000E+01
    1.475242E+02    1.084709E+01   -7.161830E+00
    1.445458E+02    1.558725E+01   -7.161830E+00
    1.475242E+02    1.084709E+01   -2.741770E+00
    1.445458E+02    1.558725E+01   -2.741770E+00
    1.475242E+02    1.084709E+01    3.000000E-01
    1.445458E+02    1.558725E+01    3.000000E-01
    1.445458E+02    1.558725E+01   -2.500000E+01
    1.405872E+02    1.954579E+01   -2.500000E+01
    1.445458E+02    1.558725E+01   -2.225823E+01
    1.405872E+02    1.954579E+01   -2.225823E+01
    1.445458E+02    1.558725E+01   -1.783817E+01
    1.405872E+02    1.954579E+01   -1.783817E+01
    1.445458E+02    1.558725E+01   -1.250000E+01
    1.405872E+02    1.954579E+01   -1.250000E+01
    1.445458E+02    1.558725E+01   -7.161830E+00
    1.405872E+02    1.954579E+01   -7.161830E+00
    1.445458E+02    1.558725E+01   -2.741770E+00
    1.405872E+02    1.954579E+01   -2.741770E+00
    1.445458E+02    1.558725E+01    3.000000E-01
    1.405872E+02    1.954579E+01    3.000000E-01
    1.405872E+02    1.954579E+01   -2.500000E+01
    1.358471E+02    2.252422E+01   -2.500000E+01
    1.405872E+02    1.954579E+01   -2.225823E+01
    1.358471E+02    2.252422E+01   -2.225823E+01
    1.405872E+02    1.954579E+01   -1.783817E+01
    1.358471E+02    2.252422E+01   -1.783817E+01
    1.405872E+02    1.954579E+01   -1.250000E+01
    1.358471E+02    2.252422E+01   -1.250000E+01
    1.405872E+02    1.954579E+01   -7.161830E+00
    1.358471E+02    2.252422E+01   -7.161830E+00
    1.405872E+02    1.954579E+01   -2.741770E+00
    1.358471E+02    2.252422E+01   -2.741770E+00
    1.405872E+02    1.954579E+01    3.000000E-01
    1.358471E+02    2.252422E+01    3.000000E-01
    1.358471E+02    2.252422E+01   -2.500000E+01
    1.305630E+02    2.437320E+01   -2.500000E+01